ITEM: TIMESTEP
104000
ITEM: NUMBER OF ATOMS
3499
ITEM: BOX BOUNDS pp pp mm
-0.05 0.05
-0.05 0.05
0 0.15
ITEM: ATOMS id x y z radius 
34 -0.0492189 -0.0485421 0.00234136 0.0023811 
181 -0.0445187 -0.0480106 0.00235809 0.0023811 
397 -0.0399359 -0.0468336 0.00235259 0.0023811 
206 -0.0348653 -0.0499632 0.00374182 0.00377976 
263 -0.0298477 -0.0455133 0.00296638 0.003 
237 -0.0247676 -0.0471427 0.00236938 0.0023811 
428 -0.0194954 -0.0462806 0.00297785 0.003 
221 -0.0130426 -0.0474787 0.00296341 0.003 
226 -0.00706114 -0.0472788 0.0029911 0.003 
447 -0.00198877 -0.0489011 0.00233969 0.0023811 
231 0.00231454 -0.0468503 0.00237476 0.0023811 
103 0.00952745 -0.045077 0.00376483 0.00377976 
425 0.0233832 -0.0464079 0.00296707 0.003 
157 0.0293628 -0.0465103 0.00296036 0.003 
179 0.0342527 -0.0486586 0.00236382 0.0023811 
110 0.039563 -0.0491227 0.00299045 0.003 
321 0.045493 -0.0483935 0.00295694 0.003 
418 -0.0474094 -0.0435336 0.00296582 0.003 
134 -0.0421661 -0.0426687 0.00237268 0.0023811 
3 -0.0358372 -0.042472 0.00377753 0.00377976 
638 -0.0250394 -0.04244 0.00234505 0.0023811 
532 -0.0206393 -0.0407191 0.00235155 0.0023811 
168 -0.015448 -0.0418956 0.00297897 0.003 
630 -0.0102501 -0.0429531 0.002338 0.0023811 
49 -0.00622731 -0.0404915 0.00235595 0.0023811 
517 -0.0019295 -0.0436046 0.00297929 0.003 
420 0.00372635 -0.0416965 0.00296258 0.003 
44 0.0127959 -0.0400913 0.00233934 0.0023811 
151 0.0170271 -0.0442727 0.00377226 0.00377976 
136 0.0221617 -0.0412297 0.00236039 0.0023811 
197 0.0268974 -0.0417791 0.00236989 0.0023811 
40 0.032609 -0.0422877 0.00235298 0.0023811 
90 0.0367182 -0.0446148 0.00233478 0.0023811 
23 0.0419157 -0.0436126 0.00298464 0.003 
449 0.0472266 -0.0431538 0.00234902 0.0023811 
323 -0.0453435 -0.0369274 0.0029947 0.003 
241 -0.0401919 -0.0383783 0.00236077 0.0023811 
80 -0.0349942 -0.0364469 0.00237714 0.0023811 
529 -0.0305695 -0.0396206 0.00236969 0.0023811 
618 -0.0254353 -0.037145 0.00297519 0.003 
120 -0.0176489 -0.03633 0.00297469 0.003 
302 -0.0109869 -0.0368667 0.0037679 0.00377976 
247 -0.00511458 -0.0358995 0.00234068 0.0023811 
444 -0.000397745 -0.0382996 0.00236469 0.0023811 
214 0.00407771 -0.0353944 0.00298277 0.003 
445 0.00826803 -0.0386883 0.00233465 0.0023811 
518 0.0182058 -0.0376496 0.00298859 0.003 
301 0.0251309 -0.0360548 0.00375289 0.00377976 
349 0.032408 -0.0362057 0.00236983 0.0023811 
446 0.0366387 -0.0397657 0.00237626 0.0023811 
130 0.0411685 -0.0383247 0.00236568 0.0023811 
345 0.0496783 -0.039078 0.00236444 0.0023811 
52 0.04562 -0.0366239 0.00236158 0.0023811 
29 -0.0460967 -0.030936 0.00296732 0.003 
201 -0.0395628 -0.0324529 0.0037445 0.00377976 
50 -0.0304465 -0.0348663 0.00237475 0.0023811 
191 -0.0335699 -0.0312789 0.00234171 0.0023811 
404 -0.0220921 -0.0313262 0.00374454 0.00377976 
501 -0.0146233 -0.0302452 0.00375129 0.00377976 
401 -0.00706491 -0.0302392 0.00373735 0.00377976 
842 0.0072858 -0.0311492 0.00236516 0.0023811 
405 0.0124575 -0.034151 0.00376078 0.00377976 
521 0.0198558 -0.0318845 0.00298142 0.003 
441 0.0297537 -0.0322621 0.00237199 0.0023811 
432 0.0340861 -0.0303512 0.00235955 0.0023811 
315 0.0374583 -0.0344777 0.00296721 0.003 
6 0.0429081 -0.0320472 0.00296027 0.003 
448 0.0497839 -0.0343289 0.00237392 0.0023811 
245 -0.0479461 -0.0256017 0.00234066 0.0023811 
161 -0.0426484 -0.0260651 0.0029689 0.003 
505 -0.035977 -0.0258582 0.00392671 0.00377976 
606 -0.0287152 -0.0277848 0.00373924 0.00377976 
535 -0.0100826 -0.0250987 0.00234557 0.0023811 
739 -0.00303855 -0.0257933 0.00236003 0.0023811 
312 0.00236327 -0.0290888 0.00298084 0.003 
602 0.0078413 -0.025198 0.00375219 0.00377976 
601 0.0151215 -0.027107 0.00373125 0.00377976 
317 0.025284 -0.0293567 0.0029947 0.003 
537 0.0302781 -0.0275374 0.00235513 0.0023811 
429 0.0385966 -0.028928 0.00235027 0.0023811 
742 0.0354083 -0.0265711 0.0049573 0.0023811 
415 0.0430967 -0.0260835 0.00298179 0.003 
365 0.0481778 -0.0292394 0.00298788 0.003 
184 -0.0454839 -0.0215272 0.00237715 0.0023811 
319 -0.0401702 -0.0206238 0.00296734 0.003 
548 -0.0295813 -0.0218522 0.0023621 0.0023811 
220 -0.022746 -0.0246442 0.00298328 0.003 
803 -0.015558 -0.0227244 0.00375082 0.00377976 
422 0.00150528 -0.0229962 0.00297613 0.003 
278 0.0126737 -0.0216403 0.00236952 0.0023811 
696 0.0175081 -0.021521 0.00237752 0.0023811 
16 0.0223233 -0.0241865 0.00297043 0.003 
698 0.0274655 -0.0243687 0.00450227 0.0023811 
118 0.0323069 -0.0226197 0.00298239 0.003 
328 0.0382864 -0.0225128 0.00295575 0.003 
166 0.0439076 -0.020175 0.00297568 0.003 
227 -0.0448231 -0.0162202 0.00298138 0.003 
426 -0.0343244 -0.0194158 0.00296538 0.003 
320 -0.0291281 -0.0165229 0.00294173 0.003 
314 -0.0210742 -0.0189006 0.00297658 0.003 
705 -0.0143466 -0.0152951 0.00374786 0.00377976 
925 -0.00941846 -0.0198247 0.00296652 0.003 
812 -0.00345329 -0.0196739 0.0029772 0.003 
588 0.00568422 -0.0196339 0.00236992 0.0023811 
806 0.0106621 -0.0160151 0.00379375 0.00377976 
309 0.0173658 -0.0161719 0.00295141 0.003 
195 0.0219267 -0.0188975 0.00235283 0.0023811 
261 0.0272445 -0.0192296 0.00296838 0.003 
513 0.0391323 -0.0165962 0.00297091 0.003 
107 0.0496563 -0.018521 0.00297872 0.003 
284 -0.0494785 -0.0132673 0.00236517 0.0023811 
17 -0.0439584 -0.0102992 0.00298917 0.003 
506 -0.0384336 -0.0141319 0.00374743 0.00377976 
644 -0.0326496 -0.0125263 0.00237286 0.0023811 
361 -0.0257179 -0.0108512 0.00298169 0.003 
338 -0.0211262 -0.0135658 0.00237283 0.0023811 
651 -0.0176683 -0.0103078 0.00236868 0.0023811 
927 -0.00781235 -0.0136258 0.00298536 0.003 
9 -0.00182044 -0.0139206 0.00297841 0.003 
364 0.00412003 -0.0145565 0.00294921 0.003 
474 0.0178071 -0.0102051 0.0029931 0.003 
26 0.0235239 -0.0138372 0.00298247 0.003 
411 0.0294985 -0.0136789 0.00295057 0.003 
389 0.0352048 -0.0129811 0.00236672 0.0023811 
46 0.0407738 -0.011519 0.00234481 0.0023811 
124 0.045295 -0.0143543 0.00298518 0.003 
308 -0.0494539 -0.00793804 0.00295414 0.003 
509 -0.0408036 -0.0052163 0.0029826 0.003 
621 -0.0355573 -0.00806782 0.00297338 0.003 
637 -0.0302066 -0.00787632 0.00237748 0.0023811 
719 -0.0212993 -0.00580113 0.00296116 0.003 
840 -0.0159741 -0.00587215 0.00236031 0.0023811 
909 -0.0117552 -0.00911508 0.00297999 0.003 
731 -0.00411179 -0.00912161 0.00235147 0.0023811 
703 0.00180735 -0.00826356 0.00373759 0.00377976 
560 0.00837652 -0.00969762 0.00298979 0.003 
730 0.0230924 -0.00853431 0.00236277 0.0023811 
333 0.0278429 -0.00860806 0.0023457 0.0023811 
682 0.0326382 -0.00755593 0.00235709 0.0023811 
511 0.0379447 -0.00699663 0.00299567 0.003 
267 0.0445685 -0.0077664 0.00297106 0.003 
260 -0.0462129 -0.00267417 0.00298356 0.003 
2032 0.0318022 -0.00288636 0.0289286 0.0023811 
557 -0.032614 -0.002882 0.00297412 0.003 
586 -0.0274093 -0.00402784 0.00233071 0.0023811 
484 -0.0178332 -0.00149923 0.00236836 0.0023811 
476 -0.0125186 -0.00181448 0.00298539 0.003 
916 -0.00746394 -0.0049897 0.00295106 0.003 
729 -0.00248952 -0.00310969 0.00236956 0.0023811 
800 0.0021784 -0.00230071 0.00234954 0.0023811 
650 0.00672689 -0.00365464 0.0023534 0.0023811 
552 0.0129111 -0.00473012 0.00373518 0.00377976 
419 0.0196128 -0.00450143 0.00297136 0.003 
417 0.0255332 -0.00379963 0.00299536 0.003 
607 0.0313244 -0.00239788 0.00300133 0.003 
382 0.0365856 -0.00169518 0.00236951 0.0023811 
162 0.0418484 -0.00244821 0.00295455 0.003 
423 0.0478118 -0.00262196 0.0029827 0.003 
244 -0.0469724 -0.0477109 0.00639923 0.0023811 
54 -0.0405632 -0.0481398 0.00831523 0.00377976 
121 -0.0323368 -0.0461728 0.00874348 0.003 
24 -0.0266892 -0.0477428 0.00751937 0.003 
79 -0.021426 -0.0486734 0.00736425 0.0023811 
202 -0.015935 -0.0465011 0.00896248 0.00377976 
827 -0.00796721 -0.0485551 0.00901528 0.003 
614 -4.05674e-05 -0.0476468 0.00715752 0.003 
434 0.00502524 -0.0486921 0.00582132 0.0023811 
539 0.0137366 -0.0490298 0.00586344 0.0023811 
635 0.0134111 -0.0452093 0.00864838 0.0023811 
298 0.0162922 -0.0495852 0.00982017 0.0023811 
534 0.0240233 -0.0462014 0.00826221 0.0023811 
400 0.0210034 -0.0497177 0.00923208 0.0023811 
542 0.0292692 -0.0494189 0.00927808 0.0023811 
403 0.035575 -0.0453192 0.00829578 0.00377976 
253 0.0428826 -0.0469961 0.00900172 0.00377976 
204 -0.0454879 -0.0425452 0.00935776 0.00377976 
645 -0.0369525 -0.0434188 0.00979776 0.0023811 
239 -0.027971 -0.0414506 0.00589801 0.0023811 
4 -0.0223076 -0.042622 0.0079347 0.00377976 
435 -0.0105852 -0.0444731 0.00678746 0.0023811 
437 -0.00544093 -0.0441464 0.00704765 0.0023811 
629 -0.00842594 -0.0404642 0.00804226 0.0023811 
285 0.000818853 -0.0423771 0.00740933 0.0023811 
443 0.00493295 -0.0445832 0.00817935 0.0023811 
94 0.0244953 -0.0417719 0.00647318 0.0023811 
527 0.0289351 -0.0441217 0.00839956 0.003 
512 0.0405381 -0.0407405 0.00810045 0.003 
342 0.0451779 -0.0401841 0.00544904 0.0023811 
147 0.0488426 -0.04345 0.00677808 0.0023811 
233 0.0457935 -0.0416503 0.00991495 0.0023811 
402 -0.0395572 -0.0379335 0.00888933 0.00377976 
503 -0.0322497 -0.0394859 0.00978369 0.00377976 
547 -0.0266751 -0.0374949 0.00817346 0.0023811 
741 -0.0215214 -0.0366845 0.00666123 0.0023811 
169 -0.0161134 -0.0397358 0.00850007 0.003 
831 -0.0114945 -0.0373612 0.00988271 0.0023811 
713 -0.00340607 -0.0391836 0.00671394 0.003 
834 0.00173419 -0.0377504 0.00717935 0.0023811 
619 0.00697211 -0.039482 0.00743871 0.003 
510 0.0139454 -0.0395696 0.0075375 0.003 
608 0.0209563 -0.0382385 0.00857814 0.003 
330 0.0301229 -0.0393555 0.00508892 0.0023811 
502 0.0347805 -0.0372375 0.00849948 0.00377976 
97 0.0427287 -0.0362086 0.00631351 0.0023811 
163 0.0496176 -0.0382025 0.00765938 0.003 
51 -0.0485997 -0.0331754 0.00711003 0.0023811 
208 -0.0439395 -0.030578 0.00854477 0.003 
624 -0.0338358 -0.0334683 0.00719794 0.003 
749 -0.0277619 -0.0334009 0.00601828 0.0023811 
818 -0.0174166 -0.0338928 0.00872647 0.003 
926 -0.0108469 -0.032102 0.00903384 0.003 
847 -0.00655925 -0.0349634 0.00756666 0.0023811 
523 -0.00122421 -0.0334259 0.00500477 0.003 
902 0.00402017 -0.0324051 0.00910133 0.00377976 
945 0.0147542 -0.0317298 0.00993844 0.0023811 
849 0.0175722 -0.0343341 0.00716557 0.0023811 
344 0.0299398 -0.0338099 0.00686682 0.0023811 
647 0.0353466 -0.0313532 0.00681752 0.0023811 
440 0.0398866 -0.0325582 0.00735632 0.0023811 
128 0.0468436 -0.0338811 0.00609057 0.0023811 
507 -0.0493914 -0.0280904 0.00858254 0.003 
414 -0.0414089 -0.0251491 0.00873953 0.003 
707 -0.0378649 -0.0298594 0.00975668 0.003 
819 -0.0320999 -0.0282513 0.00955765 0.003 
825 -0.0260991 -0.0283862 0.0099501 0.003 
947 -0.0209783 -0.0299664 0.00961513 0.0023811 
589 -0.0189333 -0.0269397 0.00662422 0.0023811 
740 -0.0113683 -0.0260172 0.00680709 0.0023811 
1034 -0.00180916 -0.028237 0.00623996 0.0023811 
829 0.00284913 -0.0258997 0.00727685 0.0023811 
823 0.0101252 -0.029683 0.00824769 0.003 
922 0.019346 -0.0294235 0.00845213 0.003 
407 0.0241359 -0.0258506 0.00843965 0.003 
605 0.0305578 -0.0279027 0.00847659 0.00377976 
699 0.0397461 -0.0278077 0.00679883 0.0023811 
427 0.044778 -0.029266 0.00791026 0.003 
139 -0.0462287 -0.0242832 0.00654322 0.0023811 
693 -0.0377575 -0.0213648 0.00770825 0.0023811 
720 -0.0324277 -0.0217867 0.0081255 0.003 
820 -0.0266137 -0.0221628 0.00681508 0.003 
724 -0.0207741 -0.0221274 0.00806283 0.003 
807 -0.00640684 -0.0239385 0.00609638 0.003 
846 -0.00256081 -0.0207934 0.00813451 0.0023811 
35 0.00462273 -0.0209458 0.00683397 0.0023811 
837 0.0111659 -0.0214868 0.00735707 0.0023811 
933 0.0191783 -0.0241934 0.0072831 0.0023811 
708 0.0226384 -0.0201347 0.00751869 0.003 
710 0.029787 -0.0208467 0.00811662 0.003 
170 0.0355928 -0.0222478 0.00827813 0.003 
718 0.0416643 -0.0228985 0.00784699 0.003 
211 0.0480535 -0.0237471 0.00537824 0.003 
538 -0.0481465 -0.0167653 0.00754363 0.0023811 
115 -0.0436874 -0.0197185 0.00769355 0.003 
627 -0.0390547 -0.0166895 0.00996534 0.003 
615 -0.0329042 -0.0158506 0.00752788 0.003 
805 -0.0245926 -0.015808 0.00782932 0.00377976 
1044 -0.018637 -0.0172486 0.0076554 0.0023811 
1107 -0.0104105 -0.0179901 0.00855822 0.003 
912 -0.00489902 -0.0158554 0.0077114 0.003 
711 0.00102012 -0.0168811 0.00748028 0.003 
1038 0.00719694 -0.0181801 0.00971019 0.0023811 
931 0.0118765 -0.0173975 0.00967363 0.0023811 
822 0.016238 -0.0197269 0.00759997 0.003 
697 0.020487 -0.0152252 0.00721624 0.0023811 
914 0.0266113 -0.0157034 0.0077635 0.003 
622 0.0336557 -0.0172675 0.00528208 0.003 
919 0.0382017 -0.0168778 0.00913127 0.003 
817 0.0440871 -0.0174371 0.00828242 0.003 
530 0.0487384 -0.0199827 0.00915265 0.0023811 
39 -0.0479348 -0.0120996 0.00669907 0.0023811 
92 -0.0433974 -0.0134087 0.00734084 0.0023811 
689 -0.0347891 -0.0108448 0.0074803 0.0023811 
961 -0.0294116 -0.0110056 0.00768699 0.003 
722 -0.0207732 -0.010371 0.00674896 0.003 
1144 -0.0154411 -0.0100637 0.00673556 0.0023811 
1016 -0.0105334 -0.0115431 0.00831772 0.003 
1091 -0.00566962 -0.010002 0.00673445 0.0023811 
1013 -0.0010286 -0.0114581 0.00897201 0.003 
802 0.00568518 -0.0122498 0.00907973 0.00377976 
949 0.0158478 -0.0138427 0.0075037 0.0023811 
673 0.0220128 -0.0100828 0.00738242 0.003 
748 0.0272948 -0.0105044 0.00665198 0.0023811 
811 0.0330357 -0.0106671 0.00669293 0.003 
636 0.0380697 -0.012422 0.00612712 0.0023811 
399 0.0427732 -0.0112568 0.00662255 0.0023811 
438 0.047491 -0.0107721 0.00631281 0.0023811 
504 -0.0460539 -0.00656836 0.00859655 0.00377976 
327 -0.0397637 -0.00882073 0.00767669 0.003 
439 -0.0316576 -0.00615271 0.00713067 0.0023811 
814 -0.0257943 -0.00630823 0.00687254 0.003 
1005 -0.00861345 -0.00517145 0.00958371 0.00377976 
1036 -0.00331473 -0.00592279 0.0062054 0.0023811 
948 0.00274382 -0.00613501 0.00938347 0.0023811 
899 0.00656448 -0.00563372 0.00664262 0.0023811 
791 0.0102461 -0.00830703 0.00793032 0.0023811 
89 0.0148768 -0.00922572 0.00740804 0.0023811 
294 0.0189729 -0.00574831 0.0081744 0.0023811 
688 0.0254608 -0.00603622 0.00813013 0.0023811 
790 0.029729 -0.00646863 0.00611744 0.0023811 
828 0.0346537 -0.00499181 0.00759646 0.003 
714 0.0415183 -0.00594827 0.00778095 0.003 
219 -0.0478197 -6.69995e-05 0.00812716 0.003 
679 -0.0420052 -0.00131059 0.00734312 0.003 
662 -0.0365628 -0.00379856 0.00737195 0.003 
646 -0.028579 -0.00175872 0.00630846 0.0023811 
1139 -0.0207277 -0.00334252 0.00768964 0.0023811 
918 -0.015045 -0.00478241 0.00752959 0.003 
1084 -0.00508736 -0.00134367 0.00605895 0.0023811 
935 -5.49415e-05 -0.00254676 0.00682159 0.0023811 
1023 0.00489492 -0.000522084 0.00659696 0.003 
1083 0.0100572 -0.00122229 0.00785091 0.0023811 
1067 0.017344 -0.000775429 0.00703343 0.003 
1094 0.0224009 -0.0025265 0.00723565 0.0023811 
569 0.0387002 -0.000622291 0.00766095 0.003 
251 0.0453621 -0.000490776 0.00891382 0.00377976 
334 -0.0463539 -0.0484034 0.0110173 0.0023811 
132 -0.0467113 -0.0451945 0.0147592 0.0023811 
545 -0.0355355 -0.0498316 0.0113943 0.0023811 
431 -0.0348581 -0.0456052 0.013453 0.0023811 
145 -0.0314285 -0.0488715 0.0138461 0.0023811 
690 -0.0223908 -0.0473412 0.0118556 0.0023811 
905 -0.011196 -0.0471633 0.0147725 0.00377976 
642 -0.00355361 -0.0461932 0.0109224 0.0023811 
921 0.00266254 -0.0495692 0.0121328 0.003 
702 0.00926937 -0.0497242 0.0106732 0.00377976 
558 0.0141479 -0.0472769 0.0146519 0.003 
631 0.0241099 -0.048076 0.0126067 0.0023811 
207 0.0329547 -0.0491502 0.0131923 0.003 
536 0.0455159 -0.048819 0.0142972 0.0023811 
362 0.0490089 -0.0458019 0.0115695 0.003 
72 -0.0409306 -0.0445498 0.0140279 0.003 
53 -0.0274998 -0.0442115 0.0131985 0.00377976 
641 -0.0215643 -0.042881 0.0140312 0.0023811 
1033 -0.0159287 -0.0421444 0.0133063 0.0023811 
848 -0.0119126 -0.0422056 0.0107618 0.0023811 
934 -0.00740752 -0.0434913 0.011564 0.0023811 
1006 -0.00259811 -0.0411207 0.0123163 0.003 
1049 0.00164119 -0.0443303 0.0116229 0.0023811 
745 0.009177 -0.0436154 0.0100292 0.0023811 
1111 0.00623337 -0.0449055 0.014317 0.003 
1015 0.0130692 -0.0415911 0.0130873 0.003 
154 0.018961 -0.0441857 0.0110638 0.00377976 
279 0.0247802 -0.0422561 0.0112321 0.0023811 
200 0.0282269 -0.0419698 0.0144903 0.0023811 
142 0.0321744 -0.0416542 0.0118628 0.0023811 
442 0.0371267 -0.0411934 0.0125663 0.0023811 
311 0.0422158 -0.0423121 0.0138367 0.003 
28 0.049626 -0.0401076 0.0133339 0.003 
111 -0.0457603 -0.0359332 0.0106828 0.003 
516 -0.0426485 -0.0388881 0.0148336 0.003 
950 -0.0200587 -0.0385552 0.011936 0.0023811 
915 -0.0152995 -0.0367335 0.013603 0.003 
1040 -0.00658323 -0.0376812 0.0114039 0.0023811 
1109 -0.00176098 -0.0353516 0.0109993 0.003 
1003 0.00365659 -0.0387407 0.0132526 0.00377976 
906 0.0103324 -0.0355598 0.0117556 0.00377976 
436 0.0165078 -0.0367456 0.0113043 0.0023811 
1022 0.0204444 -0.0384901 0.0145257 0.003 
609 0.0283094 -0.038412 0.0100254 0.003 
325 0.0402343 -0.036794 0.0125909 0.003 
230 0.045117 -0.0369742 0.0103356 0.0023811 
307 -0.0471972 -0.0305723 0.0135623 0.003 
210 -0.0412332 -0.0331882 0.0134092 0.003 
626 -0.0354046 -0.0343818 0.012891 0.003 
816 -0.0293141 -0.0333066 0.0111409 0.003 
212 -0.023422 -0.0344703 0.0111544 0.003 
1236 -0.0106063 -0.0341507 0.0139819 0.0023811 
1232 -0.00586429 -0.0339801 0.0142656 0.0023811 
1124 -0.00520311 -0.0305204 0.0102251 0.003 
1323 -0.00055928 -0.0303131 0.0139812 0.003 
1140 0.018515 -0.0326617 0.0126472 0.0023811 
804 0.0249685 -0.032569 0.0104415 0.00377976 
824 0.0313298 -0.0331719 0.012658 0.003 
91 0.0370379 -0.0321896 0.0111943 0.0023811 
736 0.0417523 -0.0317333 0.011624 0.0023811 
346 0.0450146 -0.0341098 0.0141146 0.0023811 
240 0.0491217 -0.0349609 0.0119123 0.0023811 
489 0.0475898 -0.0304955 0.0122984 0.0023811 
114 -0.0422009 -0.0273513 0.0142289 0.003 
514 -0.0293641 -0.0260941 0.0144185 0.003 
932 -0.0217345 -0.0258345 0.0118151 0.0023811 
920 -0.0153539 -0.028404 0.0103327 0.003 
1226 -0.00959342 -0.0267822 0.0117881 0.003 
1436 -0.00531677 -0.0278336 0.0148786 0.0023811 
1018 -0.00214197 -0.0254305 0.0107892 0.003 
248 0.00309778 -0.027014 0.0118722 0.0023811 
1108 0.00758384 -0.0295675 0.0140711 0.003 
901 0.014449 -0.0252787 0.010995 0.00377976 
1122 0.0236171 -0.0271524 0.0142507 0.003 
1143 0.0289658 -0.0274044 0.0143917 0.0023811 
733 0.0335601 -0.0284222 0.0138363 0.0023811 
540 0.0364495 -0.0275834 0.0101801 0.0023811 
84 0.0412219 -0.0270268 0.0112437 0.0023811 
5 -0.0471119 -0.0230634 0.012495 0.00377976 
838 -0.0413232 -0.0210078 0.0123297 0.0023811 
604 -0.0361806 -0.0242653 0.0131724 0.00377976 
904 -0.0251559 -0.0209431 0.0133041 0.00377976 
1324 -0.0173013 -0.0246998 0.0146245 0.003 
826 -0.013753 -0.0226429 0.0102669 0.003 
910 -0.0066114 -0.0215043 0.0115439 0.003 
903 0.00255924 -0.0209516 0.0126443 0.00377976 
810 0.00773569 -0.0246939 0.0104894 0.003 
579 0.010605 -0.0207796 0.0127582 0.0023811 
1229 0.0200608 -0.0224533 0.0116208 0.0023811 
1002 0.0257321 -0.0207626 0.013509 0.00377976 
716 0.0320757 -0.0232173 0.013107 0.003 
843 0.0379736 -0.0239166 0.0127729 0.0023811 
792 0.0408843 -0.0201838 0.0123953 0.0023811 
277 0.0464305 -0.0244608 0.0110806 0.003 
180 -0.0455025 -0.0171434 0.012016 0.0023811 
809 -0.0332138 -0.0181883 0.0130067 0.003 
1021 -0.0185227 -0.0191263 0.012742 0.003 
1220 -0.00814261 -0.0161492 0.0137904 0.003 
1234 -0.00272214 -0.017854 0.0121741 0.0023811 
1028 0.0151705 -0.0194898 0.0128977 0.0023811 
1137 0.0179203 -0.016051 0.0111287 0.0023811 
888 0.0226616 -0.0158638 0.0113975 0.0023811 
1004 0.0321348 -0.0151891 0.0116131 0.00377976 
648 0.045549 -0.0195247 0.0130122 0.0023811 
715 -0.0445208 -0.0119003 0.0124438 0.003 
830 -0.0391655 -0.0117843 0.0120976 0.0023811 
1131 -0.0345779 -0.0130041 0.0117529 0.0023811 
1200 -0.028377 -0.0135314 0.0139162 0.00377976 
1102 -0.0207194 -0.0124969 0.0133405 0.00377976 
1119 -0.0149712 -0.0147717 0.0106564 0.003 
1311 -0.0058847 -0.0107748 0.0124061 0.003 
1017 0.00119315 -0.0144343 0.0136502 0.003 
1025 0.0121517 -0.0122185 0.0110243 0.003 
1126 0.0178867 -0.0107061 0.0116435 0.003 
1179 0.0266325 -0.0121354 0.0117471 0.0023811 
433 0.03794 -0.0143971 0.013883 0.0023811 
813 0.0425584 -0.0126995 0.0117636 0.003 
324 0.0483952 -0.0139601 0.0105126 0.003 
160 -0.0412276 -0.00697793 0.0133178 0.003 
908 -0.0354865 -0.00771792 0.0117671 0.003 
1024 -0.0285862 -0.00703651 0.012091 0.003 
1185 -0.0222501 -0.00716657 0.0107613 0.0023811 
1223 -0.0152105 -0.00883112 0.0119278 0.003 
1238 -0.0104208 -0.00863291 0.0143184 0.0023811 
1110 -0.00219406 -0.00613456 0.0114514 0.003 
1043 0.00195609 -0.00921165 0.0128818 0.0023811 
727 0.00734541 -0.00643117 0.0120893 0.003 
1125 0.0235777 -0.007856 0.0128128 0.003 
242 0.0296303 -0.00872013 0.010352 0.0023811 
1147 0.0333343 -0.00669806 0.0125169 0.0023811 
911 0.0374803 -0.00941206 0.0104927 0.003 
1317 0.041212 -0.00774136 0.0148359 0.003 
351 0.047024 -0.00740579 0.011428 0.00377976 
155 -0.0495277 -9.65449e-05 0.0146522 0.00377976 
1130 -0.0436943 -0.00232715 0.0123386 0.0023811 
1047 -0.0376711 -0.00296596 0.0129645 0.0023811 
669 -0.0324913 -0.00254985 0.0115445 0.003 
941 -0.0248048 -0.00325714 0.0115455 0.0023811 
1301 -0.0185035 -0.00312819 0.0134138 0.00377976 
1189 -0.0130361 -0.00128277 0.0113263 0.0023811 
141 -0.00291074 -0.000928419 0.0102502 0.0023811 
1344 -0.0023202 -0.00198056 0.0148414 0.0023811 
1062 0.0021915 -0.00142788 0.0118327 0.003 
1001 0.013811 -0.00462419 0.0113179 0.00377976 
1243 0.0197935 -0.00406686 0.0125461 0.0023811 
1009 0.0246297 -0.00190694 0.0133428 0.003 
907 0.0296646 -0.00336213 0.0104845 0.003 
1064 0.0346062 -0.000553188 0.0123291 0.003 
880 0.0384159 -0.00428862 0.0118285 0.0023811 
32 -0.0477899 -0.0483483 0.0181369 0.0023811 
96 -0.0437772 -0.0458264 0.0184368 0.0023811 
380 -0.0378872 -0.0487679 0.0153503 0.0023811 
620 -0.0385838 -0.0458412 0.0197689 0.003 
628 -0.0327624 -0.0456507 0.0183952 0.003 
944 -0.0233947 -0.0472156 0.0166654 0.0023811 
22 -0.0182115 -0.0468756 0.0152911 0.003 
1048 -0.00680195 -0.049553 0.0183312 0.0023811 
1206 0.000797705 -0.0460984 0.0165988 0.003 
1129 0.00586149 -0.0497831 0.0164773 0.0023811 
1535 0.0101312 -0.0458159 0.0179029 0.0023811 
928 0.0207783 -0.0468842 0.0192323 0.003 
178 0.028111 -0.0471092 0.0160451 0.003 
603 0.0395545 -0.0482579 0.0156436 0.00377976 
15 0.0470945 -0.0498535 0.0193237 0.003 
265 -0.0465183 -0.0412214 0.0187717 0.003 
198 -0.0412115 -0.0411271 0.0195443 0.0023811 
704 -0.0361658 -0.0402469 0.0161714 0.00377976 
99 -0.0275796 -0.0445985 0.0193129 0.0023811 
744 -0.0243952 -0.0413068 0.0176245 0.0023811 
940 -0.0205483 -0.0437274 0.0189403 0.0023811 
1120 -0.0152142 -0.0430098 0.0187284 0.003 
1113 -0.00504918 -0.0448205 0.0163187 0.003 
289 -0.00124062 -0.0411772 0.0174993 0.0023811 
1315 0.00364179 -0.0418113 0.0196149 0.003 
1210 0.00890903 -0.0404093 0.0171948 0.003 
1118 0.0171087 -0.0425556 0.017367 0.003 
798 0.0234064 -0.0442455 0.0153235 0.0023811 
515 0.0296426 -0.0426908 0.0197712 0.003 
218 0.0342995 -0.0440322 0.0161539 0.003 
392 0.0434168 -0.0444831 0.0186013 0.0023811 
270 0.0486404 -0.0444267 0.0173527 0.003 
313 -0.0475395 -0.0358245 0.0163969 0.003 
450 -0.0434435 -0.0369337 0.0197573 0.0023811 
1030 -0.0393648 -0.0352979 0.0179591 0.0023811 
801 -0.0291114 -0.0375789 0.0163678 0.00377976 
1224 -0.0224534 -0.036337 0.0181449 0.003 
643 -0.0187703 -0.0398061 0.016312 0.0023811 
1331 -0.013657 -0.0357788 0.0186229 0.0023811 
1203 -0.00985774 -0.0398721 0.0160747 0.00377976 
1134 -0.00423223 -0.0375155 0.0169975 0.0023811 
1506 0.00102015 -0.0363973 0.0189804 0.003 
1026 0.0149789 -0.0370043 0.0164459 0.003 
1448 0.0191679 -0.0360892 0.0196944 0.0023811 
616 0.0261801 -0.0370911 0.0154292 0.003 
611 0.0319605 -0.0384965 0.0161793 0.003 
376 0.0383025 -0.0398263 0.0176099 0.003 
68 0.0455949 -0.0391784 0.0176496 0.003 
1247 -0.0432084 -0.0324187 0.018336 0.0023811 
929 -0.0315977 -0.0312905 0.0162971 0.003 
723 -0.0256688 -0.031775 0.0159681 0.003 
1305 -0.0189706 -0.0313153 0.0152397 0.00377976 
1531 -0.00844494 -0.0342886 0.0182374 0.0023811 
1518 -0.00343385 -0.0324353 0.0187763 0.003 
1045 0.00377673 -0.0330526 0.0155972 0.0023811 
1303 0.00913945 -0.0339173 0.0189928 0.00377976 
1115 0.0134317 -0.030545 0.0150503 0.003 
1432 0.0160848 -0.0324999 0.0192705 0.0023811 
1325 0.0221246 -0.0328398 0.0165794 0.003 
1213 0.0279564 -0.0317423 0.0173895 0.003 
187 0.0330662 -0.0303068 0.0181587 0.0023811 
721 0.0361204 -0.0342066 0.0160929 0.003 
617 0.0416741 -0.0347069 0.0182522 0.003 
633 0.0485413 -0.0321748 0.0166296 0.0023811 
286 -0.0471689 -0.0298582 0.0188799 0.0023811 
1133 -0.0423974 -0.0279085 0.0195632 0.0023811 
117 -0.0374016 -0.0299382 0.0166477 0.003 
1309 -0.0232949 -0.0263634 0.0169166 0.003 
1502 -0.0120539 -0.0293555 0.0175306 0.00377976 
1204 0.0031015 -0.0262547 0.0179555 0.00377976 
1217 0.0184723 -0.0280887 0.0171268 0.003 
1019 0.0386192 -0.0288004 0.0155845 0.003 
396 0.0439319 -0.0293342 0.0150775 0.0023811 
526 0.0485692 -0.0268454 0.0161164 0.003 
78 -0.0406422 -0.0230682 0.0180998 0.003 
738 -0.0328664 -0.024889 0.0183217 0.0023811 
1245 -0.0304644 -0.0212496 0.0164329 0.0023811 
1444 -0.0270338 -0.0231703 0.0190885 0.0023811 
1345 -0.0138712 -0.0235749 0.0186014 0.0023811 
1215 -0.00883583 -0.0234808 0.0166858 0.003 
1008 -0.00286021 -0.0232732 0.0163177 0.003 
1332 0.00211181 -0.0202375 0.0187492 0.0023811 
1128 0.00652541 -0.0212102 0.0173274 0.0023811 
1114 0.0103656 -0.0248002 0.0163306 0.003 
1348 0.0169515 -0.0230203 0.0161172 0.0023811 
1413 0.0217996 -0.0232636 0.0184113 0.003 
1330 0.026973 -0.0248831 0.0178917 0.0023811 
1407 0.0323879 -0.0239776 0.0190315 0.003 
1337 0.0375233 -0.0239111 0.0174868 0.0023811 
322 0.0425277 -0.0241811 0.0155995 0.003 
1027 0.0468024 -0.0211284 0.0184393 0.003 
525 -0.0499185 -0.0174774 0.0150347 0.003 
712 -0.044379 -0.0185008 0.017079 0.003 
959 -0.0385222 -0.0179943 0.0157707 0.003 
1624 -0.0344478 -0.0198451 0.0197493 0.003 
1316 -0.0273045 -0.017797 0.01905 0.003 
1327 -0.0214582 -0.0175169 0.0177838 0.003 
1209 -0.0129778 -0.0193909 0.0152269 0.003 
1310 -0.00226394 -0.0174312 0.0174897 0.003 
1322 0.00290974 -0.0149554 0.0193491 0.003 
1202 0.00824356 -0.0156975 0.0152818 0.00377976 
1441 0.0124494 -0.0198389 0.0170305 0.0023811 
1222 0.0197227 -0.0184492 0.0155489 0.003 
1411 0.0234456 -0.0167282 0.0198866 0.003 
1132 0.0266519 -0.0150211 0.0155179 0.0023811 
1423 0.0307929 -0.0184566 0.0173635 0.003 
1214 0.036233 -0.0193548 0.0149964 0.003 
1020 0.0415363 -0.017318 0.0168675 0.003 
67 -0.0496021 -0.0115374 0.0155912 0.003 
1087 -0.0465246 -0.0129748 0.0197409 0.0023811 
1218 -0.0416422 -0.0132047 0.0175265 0.003 
1312 -0.034344 -0.0139126 0.0170375 0.003 
1505 -0.0242317 -0.0117586 0.0199542 0.00377976 
1201 -0.0142281 -0.0130094 0.0171328 0.00377976 
1300 -0.0020797 -0.010559 0.0181216 0.00377976 
1307 0.0149491 -0.0148618 0.015593 0.003 
1306 0.021772 -0.0127799 0.0157017 0.003 
1647 0.0283882 -0.0143826 0.0198925 0.0023811 
228 0.0349572 -0.0108837 0.0149752 0.0023811 
1302 0.0358372 -0.0145949 0.0197891 0.00377976 
243 0.0421877 -0.0120803 0.0178321 0.0023811 
1046 0.0458115 -0.0143061 0.0156956 0.0023811 
326 -0.0468304 -0.00625992 0.0153048 0.003 
1039 -0.0377092 -0.00984218 0.0161528 0.0023811 
1011 -0.0385934 -0.00508401 0.0184474 0.003 
1405 -0.0322921 -0.00745027 0.0177261 0.00377976 
1212 -0.0239221 -0.00641073 0.015808 0.003 
1343 -0.0189585 -0.00800689 0.0171097 0.0023811 
1416 -0.0140623 -0.00641799 0.0186413 0.003 
1135 -0.00950358 -0.00924325 0.0189165 0.0023811 
1271 -0.00618793 -0.00568243 0.0158747 0.003 
1163 0.00167234 -0.00520981 0.0163935 0.003 
1426 0.0056666 -0.00964709 0.016855 0.003 
1221 0.0129487 -0.0092537 0.0161618 0.003 
1422 0.0186692 -0.00755023 0.0166557 0.003 
1509 0.024001 -0.00532766 0.0182201 0.003 
1101 0.0292578 -0.00919538 0.0164502 0.00377976 
1249 0.0350009 -0.00515597 0.0166669 0.0023811 
1398 0.0374188 -0.00881401 0.0184501 0.0023811 
996 0.0458698 -0.0091345 0.0172209 0.0023811 
1042 0.0483936 -0.00511418 0.0175278 0.0023811 
1032 -0.0431855 -0.0027358 0.0170297 0.0023811 
1208 -0.0346565 -0.00084545 0.0168708 0.003 
1012 -0.0283113 -0.00233514 0.0157773 0.003 
1384 -0.0111413 -0.00378576 0.0150028 0.0023811 
1148 0.00610158 -0.00233585 0.0153952 0.0023811 
1538 0.0101688 -0.00462844 0.0162598 0.0023811 
1433 0.0147326 -0.00393726 0.0173463 0.0023811 
1136 0.0118921 -0.000279585 0.0153637 0.0023811 
1103 0.0300893 -0.00155057 0.0173128 0.00377976 
930 0.0390154 -0.00266628 0.0164522 0.0023811 
924 0.044232 -0.00259187 0.0152627 0.003 
490 0.0467797 -0.000615901 0.0195521 0.0023811 
725 -0.0493405 -0.0467943 0.0230251 0.003 
1029 -0.0445321 -0.0490781 0.0218392 0.0023811 
732 -0.0404649 -0.0485925 0.0248178 0.0023811 
706 -0.0352455 -0.0497982 0.0244497 0.003 
122 -0.0310161 -0.0455739 0.0242142 0.003 
1041 -0.0224982 -0.047196 0.0215429 0.0023811 
482 -0.0164102 -0.0480223 0.0201953 0.0023811 
913 -0.0113509 -0.0494348 0.0211485 0.003 
1127 -0.0140874 -0.0454181 0.0234212 0.0023811 
1530 -0.00940322 -0.0456602 0.0245602 0.0023811 
1403 -0.00274133 -0.0471314 0.0222395 0.00377976 
1313 0.00364872 -0.0491674 0.0213016 0.003 
841 0.00947859 -0.0494286 0.022529 0.0023811 
625 0.0149516 -0.0472164 0.0205722 0.003 
1382 0.0199101 -0.0462664 0.0244875 0.0023811 
595 0.0241158 -0.0495244 0.0239974 0.0023811 
379 0.0258418 -0.0463043 0.0209352 0.0023811 
587 0.0287206 -0.0498047 0.02242 0.0023811 
409 0.0333851 -0.0477207 0.0207662 0.003 
821 0.0390511 -0.045223 0.0216389 0.003 
177 0.0443389 -0.0469928 0.0238056 0.003 
348 -0.047926 -0.0417226 0.0240432 0.0023811 
7 -0.0431755 -0.0441506 0.0235073 0.003 
1106 -0.0374525 -0.0428613 0.0248057 0.003 
1207 -0.0322682 -0.0402964 0.0217001 0.003 
1333 -0.0257767 -0.0445174 0.0236793 0.0023811 
1329 -0.0269058 -0.0404169 0.0215564 0.0023811 
1240 -0.0183166 -0.043279 0.0230966 0.0023811 
936 -0.00923852 -0.0445783 0.0199704 0.0023811 
1606 -0.00535559 -0.0410263 0.0209373 0.003 
1616 0.00819571 -0.0442284 0.0226539 0.003 
1429 0.0127195 -0.0423395 0.0204308 0.0023811 
1832 0.0114294 -0.040397 0.0245537 0.0023811 
1617 0.0172357 -0.041775 0.0232829 0.003 
1100 0.0232105 -0.0406794 0.0203222 0.00377976 
743 0.0347906 -0.0420143 0.0211019 0.0023811 
430 0.0376074 -0.0410529 0.0247921 0.0023811 