ITEM: TIMESTEP
102000
ITEM: NUMBER OF ATOMS
3399
ITEM: BOX BOUNDS pp pp mm
-0.05 0.05
-0.05 0.05
0 0.15
ITEM: ATOMS id x y z radius 
34 -0.0492155 -0.0485388 0.00233015 0.0023811 
181 -0.0445162 -0.0480096 0.0023479 0.0023811 
397 -0.0399422 -0.0468358 0.00233669 0.0023811 
206 -0.0348831 -0.0499572 0.00372638 0.00377976 
263 -0.0298671 -0.0455248 0.00295428 0.003 
237 -0.0247782 -0.0471553 0.00236487 0.0023811 
428 -0.0194911 -0.0463073 0.00296799 0.003 
221 -0.0130793 -0.0474727 0.00292855 0.003 
226 -0.00709118 -0.0473356 0.00298652 0.003 
447 -0.00198742 -0.0488955 0.00231809 0.0023811 
231 0.0023181 -0.046866 0.002359 0.0023811 
103 0.00954764 -0.0450658 0.0037641 0.00377976 
425 0.0234095 -0.0463963 0.0029543 0.003 
157 0.029387 -0.0465093 0.00294769 0.003 
179 0.0342738 -0.0486393 0.00236103 0.0023811 
110 0.0395782 -0.0490982 0.00298189 0.003 
321 0.045507 -0.0483745 0.00293638 0.003 
418 -0.047404 -0.0435407 0.00294881 0.003 
134 -0.0421645 -0.042674 0.00237498 0.0023811 
3 -0.035855 -0.0424733 0.00377055 0.00377976 
638 -0.0250403 -0.0424521 0.0023432 0.0023811 
532 -0.0206426 -0.0407221 0.00234154 0.0023811 
168 -0.0154618 -0.0419103 0.00296183 0.003 
630 -0.0102703 -0.0429544 0.00232029 0.0023811 
49 -0.00624634 -0.0405188 0.00233889 0.0023811 
517 -0.00193727 -0.0436174 0.00296347 0.003 
420 0.00372657 -0.0417251 0.00294758 0.003 
44 0.0128158 -0.0400994 0.00232279 0.0023811 
151 0.0170499 -0.0442725 0.00374788 0.00377976 
136 0.0221834 -0.0412281 0.00234723 0.0023811 
197 0.0269293 -0.0417828 0.00236554 0.0023811 
40 0.032628 -0.0422882 0.00233401 0.0023811 
90 0.0367335 -0.0445995 0.00232262 0.0023811 
23 0.0419263 -0.0436004 0.00297315 0.003 
449 0.0472367 -0.043154 0.00233811 0.0023811 
323 -0.0453574 -0.0369129 0.00299362 0.003 
241 -0.0402119 -0.0383847 0.00236221 0.0023811 
80 -0.0350351 -0.0364843 0.00237726 0.0023811 
529 -0.0305876 -0.0396384 0.00236318 0.0023811 
618 -0.0254506 -0.0371666 0.00295996 0.003 
120 -0.0176556 -0.036342 0.00296892 0.003 
302 -0.0110065 -0.0368872 0.00375597 0.00377976 
247 -0.00513766 -0.0359354 0.00233718 0.0023811 
444 -0.000387484 -0.038328 0.00235471 0.0023811 
214 0.00409222 -0.035447 0.00296274 0.003 
445 0.00827554 -0.0387423 0.00230403 0.0023811 
518 0.0182335 -0.0376584 0.00298041 0.003 
301 0.0251608 -0.0360632 0.00372793 0.00377976 
349 0.0324361 -0.0362033 0.00236605 0.0023811 
446 0.0366477 -0.0397595 0.0023766 0.0023811 
130 0.0411782 -0.0383265 0.00235856 0.0023811 
345 0.0496921 -0.0390826 0.00235211 0.0023811 
52 0.045632 -0.0366229 0.00235405 0.0023811 
29 -0.046095 -0.0309388 0.00295531 0.003 
201 -0.0395783 -0.0324619 0.0037261 0.00377976 
50 -0.0304949 -0.0348947 0.00236748 0.0023811 
191 -0.0335866 -0.0312939 0.00232902 0.0023811 
404 -0.0221128 -0.0313536 0.0037327 0.00377976 
501 -0.0146598 -0.0302885 0.00373802 0.00377976 
401 -0.00709211 -0.0302603 0.00371439 0.00377976 
842 0.0073048 -0.0312049 0.00235794 0.0023811 
405 0.0124838 -0.0341754 0.00373885 0.00377976 
521 0.019882 -0.0318988 0.00297428 0.003 
441 0.0297744 -0.0322707 0.00236201 0.0023811 
432 0.0340989 -0.0303582 0.00235224 0.0023811 
315 0.0374795 -0.0344812 0.00295085 0.003 
6 0.0429167 -0.0320541 0.00294236 0.003 
448 0.0498018 -0.0343399 0.00236597 0.0023811 
245 -0.0479423 -0.0256164 0.00232821 0.0023811 
161 -0.042651 -0.0260828 0.00295615 0.003 
505 -0.035985 -0.0258823 0.00391388 0.00377976 
606 -0.0287259 -0.0278116 0.00372515 0.00377976 
535 -0.0100956 -0.0251198 0.00233692 0.0023811 
739 -0.00303381 -0.0258356 0.00235034 0.0023811 
312 0.00237957 -0.0291825 0.00297103 0.003 
602 0.00783193 -0.0252504 0.0037334 0.00377976 
601 0.0151343 -0.0271379 0.00369851 0.00377976 
317 0.0253051 -0.029367 0.00298366 0.003 
537 0.0302932 -0.0275513 0.00233517 0.0023811 
429 0.0386093 -0.0289396 0.00233476 0.0023811 
742 0.0354297 -0.0265874 0.00493681 0.0023811 
415 0.0431089 -0.0261042 0.00296313 0.003 
365 0.0481859 -0.0292548 0.00297398 0.003 
184 -0.0454809 -0.0215393 0.00237803 0.0023811 
319 -0.0401762 -0.0206479 0.00295714 0.003 
548 -0.0296095 -0.0218842 0.00235567 0.0023811 
220 -0.0227639 -0.0246875 0.00297623 0.003 
803 -0.0155709 -0.022755 0.00375485 0.00377976 
422 0.00148702 -0.0230148 0.00296086 0.003 
278 0.012679 -0.0216588 0.0023739 0.0023811 
696 0.0176816 -0.0215641 0.00237545 0.0023811 
16 0.0223412 -0.024198 0.00295602 0.003 
698 0.0274804 -0.0243903 0.004468 0.0023811 
118 0.0323258 -0.0226528 0.00296995 0.003 
328 0.0382982 -0.0225298 0.00294024 0.003 
166 0.0439153 -0.020205 0.00296044 0.003 
227 -0.0448353 -0.0162243 0.00298015 0.003 
426 -0.0343448 -0.0194472 0.0029431 0.003 
320 -0.0291494 -0.0165656 0.00292125 0.003 
314 -0.0210864 -0.0189543 0.0029675 0.003 
705 -0.0143475 -0.0153198 0.00375067 0.00377976 
925 -0.00943194 -0.0198544 0.00296002 0.003 
812 -0.00347465 -0.0196865 0.00298004 0.003 
588 0.00568133 -0.0196758 0.00235406 0.0023811 
806 0.0106524 -0.0160262 0.00376886 0.00377976 
309 0.0173578 -0.0162189 0.00292415 0.003 
195 0.0219292 -0.018914 0.00233967 0.0023811 
261 0.0272451 -0.0192525 0.00295047 0.003 
513 0.0391563 -0.0166223 0.00297038 0.003 
107 0.0496561 -0.0185398 0.00296801 0.003 
284 -0.0494983 -0.0132833 0.00236728 0.0023811 
17 -0.0439661 -0.0103128 0.00299583 0.003 
506 -0.0384387 -0.0141555 0.00372599 0.00377976 
644 -0.0326537 -0.0125452 0.00237706 0.0023811 
361 -0.0256076 -0.0108876 0.00298331 0.003 
338 -0.0210432 -0.0136332 0.00237701 0.0023811 
651 -0.0176457 -0.0103314 0.00236688 0.0023811 
927 -0.00784117 -0.0136123 0.0029842 0.003 
9 -0.00184523 -0.0139451 0.00297957 0.003 
364 0.00409679 -0.0146017 0.00291854 0.003 
474 0.0178551 -0.0102575 0.00298212 0.003 
26 0.0235089 -0.0138524 0.00295932 0.003 
411 0.0294816 -0.0136922 0.002944 0.003 
389 0.0352281 -0.0130156 0.00235213 0.0023811 
46 0.040784 -0.0115188 0.00232535 0.0023811 
124 0.0452672 -0.0143907 0.00298621 0.003 
308 -0.0494655 -0.00795264 0.00293075 0.003 
509 -0.0408071 -0.00523953 0.00296791 0.003 
621 -0.0355656 -0.00808131 0.00296378 0.003 
637 -0.0302002 -0.00794147 0.00237705 0.0023811 
719 -0.02133 -0.00579953 0.00295686 0.003 
840 -0.0160098 -0.00589036 0.00235418 0.0023811 
909 -0.0117859 -0.00912657 0.00297248 0.003 
731 -0.00414255 -0.00913771 0.00235347 0.0023811 
703 0.00178213 -0.00829708 0.00371952 0.00377976 
560 0.00835952 -0.00970905 0.00298974 0.003 
730 0.023086 -0.00854986 0.00234719 0.0023811 
333 0.0278237 -0.00862199 0.00233868 0.0023811 
682 0.0326586 -0.00753629 0.00234624 0.0023811 
511 0.0379706 -0.00700675 0.00297947 0.003 
267 0.044569 -0.00775161 0.00295506 0.003 
260 -0.0462111 -0.00269943 0.00297717 0.003 
125 -0.0378877 -1.24513e-05 0.00293973 0.003 
557 -0.032641 -0.00288261 0.00296661 0.003 
586 -0.0274407 -0.00404823 0.00231123 0.0023811 
484 -0.0178805 -0.0015288 0.00237892 0.0023811 
476 -0.0125673 -0.00184284 0.00297271 0.003 
916 -0.00749794 -0.00500378 0.00291761 0.003 
729 -0.0025195 -0.00313689 0.00238173 0.0023811 
800 0.00213779 -0.0023408 0.00232937 0.0023811 
650 0.00669476 -0.00365247 0.00235354 0.0023811 
552 0.0129018 -0.00475281 0.00370842 0.00377976 
419 0.0196062 -0.00453711 0.002958 0.003 
417 0.0255284 -0.00381076 0.00298546 0.003 
607 0.0313204 -0.00239116 0.00299504 0.003 
382 0.0365845 -0.00169262 0.00237105 0.0023811 
162 0.0418503 -0.0024409 0.00294243 0.003 
423 0.0478164 -0.00263283 0.00297845 0.003 
244 -0.046967 -0.0477132 0.00637761 0.0023811 
54 -0.0405764 -0.0481388 0.00828912 0.00377976 
121 -0.0323399 -0.0461917 0.00872935 0.003 
24 -0.0267056 -0.0477589 0.00748025 0.003 
79 -0.021466 -0.0486817 0.00732932 0.0023811 
202 -0.0159918 -0.0465128 0.00887915 0.00377976 
827 -0.00798994 -0.0485457 0.00893793 0.003 
614 -1.91802e-05 -0.0476409 0.00711861 0.003 
434 0.00504922 -0.048679 0.00579905 0.0023811 
539 0.0137627 -0.0490281 0.00584034 0.0023811 
635 0.0134503 -0.0452229 0.008634 0.0023811 
298 0.0163504 -0.0495867 0.00977055 0.0023811 
534 0.0240814 -0.0461967 0.00822757 0.0023811 
400 0.021062 -0.0496976 0.00919209 0.0023811 
542 0.0292012 -0.0494296 0.00924594 0.0023811 
403 0.0356063 -0.0452997 0.00827073 0.00377976 
253 0.042904 -0.0469734 0.00895324 0.00377976 
204 -0.04548 -0.0425483 0.00932865 0.00377976 
645 -0.0369772 -0.043426 0.0097435 0.0023811 
239 -0.0279963 -0.0414766 0.00587983 0.0023811 
4 -0.0223514 -0.0426403 0.0078937 0.00377976 
435 -0.0106428 -0.0445076 0.00672463 0.0023811 
437 -0.00550096 -0.0441486 0.00699998 0.0023811 
629 -0.00843547 -0.0405304 0.00797415 0.0023811 
285 0.000807718 -0.0423889 0.0073848 0.0023811 
443 0.00494571 -0.0445632 0.00814069 0.0023811 
94 0.0245117 -0.0417806 0.00645132 0.0023811 
527 0.0289764 -0.0441175 0.00836723 0.003 
512 0.0405673 -0.0407309 0.00807526 0.003 
342 0.0451948 -0.0401842 0.00542882 0.0023811 
147 0.0488629 -0.0434496 0.00674975 0.0023811 
233 0.045834 -0.0416525 0.00988104 0.0023811 
402 -0.0395735 -0.0379443 0.00884621 0.00377976 
503 -0.0322879 -0.0395061 0.00972787 0.00377976 
547 -0.0267194 -0.0375222 0.00814462 0.0023811 
741 -0.0215464 -0.0367199 0.00661244 0.0023811 
169 -0.016121 -0.0397639 0.00846795 0.003 
831 -0.0114728 -0.0374133 0.00986648 0.0023811 
713 -0.00342219 -0.0392047 0.00666879 0.003 
834 0.00171484 -0.0377913 0.00713801 0.0023811 
619 0.00700242 -0.0395181 0.00737828 0.003 
510 0.0139772 -0.03958 0.00750482 0.003 
608 0.0209795 -0.0382509 0.00851875 0.003 
330 0.030151 -0.0393721 0.0050476 0.0023811 
502 0.0348168 -0.037251 0.00846141 0.00377976 
97 0.0427457 -0.0362087 0.00629259 0.0023811 
163 0.0496309 -0.0382111 0.00762992 0.003 
51 -0.048597 -0.033191 0.00708155 0.0023811 
208 -0.0439406 -0.0305963 0.00853898 0.003 
624 -0.0338639 -0.0335024 0.00716092 0.003 
749 -0.0277878 -0.0334324 0.00598141 0.0023811 
947 -0.0210233 -0.030025 0.00959654 0.0023811 
818 -0.0174568 -0.0339366 0.00871197 0.003 
926 -0.0108668 -0.0321554 0.00898655 0.003 
847 -0.00656305 -0.0349935 0.00751225 0.0023811 
523 -0.00123444 -0.0334995 0.00497676 0.003 
902 0.00403337 -0.0324764 0.00902262 0.00377976 
945 0.0147639 -0.0317422 0.00990731 0.0023811 
849 0.0175862 -0.0343546 0.00714862 0.0023811 
344 0.0299682 -0.0338413 0.0068444 0.0023811 
647 0.035368 -0.0313702 0.00679088 0.0023811 
440 0.0398989 -0.0325765 0.00733237 0.0023811 
128 0.0468549 -0.0338946 0.00605884 0.0023811 
507 -0.0493927 -0.0281169 0.00855102 0.003 
414 -0.041401 -0.0251691 0.00870798 0.003 
707 -0.0378704 -0.0298868 0.00972355 0.003 
819 -0.0321031 -0.0283136 0.00952952 0.003 
825 -0.0261355 -0.0284591 0.00993744 0.003 
589 -0.0189531 -0.0269781 0.00662989 0.0023811 
740 -0.0114003 -0.026085 0.00677462 0.0023811 
1034 -0.00181998 -0.0283304 0.00618443 0.0023811 
829 0.00282151 -0.0259512 0.00722072 0.0023811 
823 0.0101258 -0.0297455 0.00820926 0.003 
922 0.0193662 -0.0294588 0.00841594 0.003 
407 0.0241572 -0.025898 0.00839247 0.003 
605 0.0305773 -0.0279314 0.00843186 0.00377976 
699 0.0397622 -0.0278378 0.00676863 0.0023811 
427 0.0447861 -0.0292959 0.00788552 0.003 
139 -0.0462341 -0.0243184 0.00652198 0.0023811 
693 -0.0377514 -0.021394 0.0076871 0.0023811 
720 -0.0324303 -0.0217981 0.00809347 0.003 
820 -0.0266332 -0.0222074 0.0067923 0.003 
724 -0.0207963 -0.0221571 0.00802708 0.003 
807 -0.00640747 -0.0239656 0.00606147 0.003 
846 -0.0025697 -0.0208473 0.0081306 0.0023811 
35 0.00463157 -0.0209932 0.00678418 0.0023811 
837 0.0111732 -0.0215891 0.00735008 0.0023811 
933 0.0191943 -0.0242486 0.00725034 0.0023811 
708 0.0226396 -0.0201906 0.00748719 0.003 
710 0.0298011 -0.0208761 0.00807651 0.003 
170 0.0355978 -0.0222608 0.00824356 0.003 
718 0.0416881 -0.0229345 0.0078067 0.003 
211 0.0480619 -0.023768 0.00534636 0.003 
538 -0.0481443 -0.0168054 0.00752035 0.0023811 
115 -0.043706 -0.0197649 0.00765851 0.003 
627 -0.0390851 -0.016731 0.00990978 0.003 
615 -0.0329314 -0.0158597 0.00746819 0.003 
805 -0.0246296 -0.0158616 0.00778112 0.00377976 
1044 -0.0186886 -0.0172907 0.00757809 0.0023811 
1107 -0.0104634 -0.0180771 0.00855856 0.003 
912 -0.00496604 -0.0159323 0.0076737 0.003 
711 0.000998666 -0.0169503 0.00742467 0.003 
1038 0.00718757 -0.0182126 0.00962722 0.0023811 
931 0.0118773 -0.0174822 0.00961347 0.0023811 
822 0.0162358 -0.0198091 0.00753357 0.003 
697 0.0204892 -0.0152803 0.00715933 0.0023811 
914 0.0265787 -0.0157436 0.00771996 0.003 
622 0.0336567 -0.0172884 0.0052111 0.003 
919 0.0382192 -0.0169318 0.00903073 0.003 
817 0.044103 -0.0174761 0.00825344 0.003 
530 0.0487507 -0.0200212 0.00913253 0.0023811 
39 -0.047939 -0.0121383 0.00670323 0.0023811 
92 -0.0433707 -0.0134371 0.00733301 0.0023811 
689 -0.0348055 -0.0108667 0.00744915 0.0023811 
961 -0.0294463 -0.0110096 0.00757248 0.003 
722 -0.0208208 -0.0104213 0.0066941 0.003 
1144 -0.015488 -0.010085 0.00670168 0.0023811 
1016 -0.0105784 -0.0115495 0.00832845 0.003 
1013 -0.00108247 -0.0115486 0.00887708 0.003 
802 0.00564939 -0.0122965 0.00900711 0.00377976 
949 0.0158494 -0.0138747 0.00743969 0.0023811 
673 0.0219729 -0.01012 0.00733619 0.003 
748 0.0272541 -0.0105271 0.00663693 0.0023811 
811 0.0330542 -0.0106729 0.00664642 0.003 
636 0.0380863 -0.0124406 0.0060908 0.0023811 
399 0.0427544 -0.011232 0.00659477 0.0023811 
438 0.0474699 -0.0107851 0.00626548 0.0023811 
504 -0.0460621 -0.00658625 0.00853174 0.00377976 
327 -0.0397912 -0.00885398 0.00763047 0.003 
439 -0.0314935 -0.00603658 0.0071947 0.0023811 
814 -0.0258277 -0.00631448 0.00683625 0.003 
1091 -0.00572669 -0.0100025 0.00672597 0.0023811 
1005 -0.00864843 -0.00517529 0.00951844 0.00377976 
1036 -0.00334333 -0.00594567 0.00614282 0.0023811 
948 0.00270517 -0.00618019 0.00935868 0.0023811 
899 0.00652989 -0.00569085 0.00661572 0.0023811 
791 0.0102181 -0.00835117 0.0078563 0.0023811 
89 0.0148485 -0.0092765 0.00732608 0.0023811 
294 0.0189657 -0.00576946 0.00812203 0.0023811 
688 0.0254231 -0.0060429 0.00792458 0.0023811 
790 0.0297541 -0.0064861 0.00607423 0.0023811 
714 0.0415361 -0.00594241 0.00775351 0.003 
219 -0.0478316 -8.3616e-05 0.00809094 0.003 
679 -0.0420345 -0.00132594 0.00728554 0.003 
662 -0.0366185 -0.00384029 0.00731001 0.003 
646 -0.028603 -0.00176244 0.00626536 0.0023811 
1139 -0.020831 -0.0033644 0.00769486 0.0023811 
918 -0.0150961 -0.00480929 0.00751485 0.003 
1084 -0.00514079 -0.00135085 0.00599804 0.0023811 
935 -7.25966e-05 -0.00258292 0.0067801 0.0023811 
1023 0.00488626 -0.000588982 0.00653325 0.003 
1083 0.0100555 -0.00124591 0.00778991 0.0023811 
1067 0.0173022 -0.000802274 0.00697891 0.003 
1094 0.022361 -0.00252623 0.0071198 0.0023811 
828 0.0346757 -0.00499091 0.00752747 0.003 
569 0.0387095 -0.000618927 0.00763675 0.003 
251 0.0453756 -0.000489231 0.00889453 0.00377976 
334 -0.0463417 -0.0483961 0.0109827 0.0023811 
132 -0.0467135 -0.0451799 0.0147223 0.0023811 
545 -0.0355608 -0.0498473 0.0113535 0.0023811 
431 -0.0349158 -0.0456192 0.0133968 0.0023811 
145 -0.0314731 -0.0488719 0.0137698 0.0023811 
690 -0.0224393 -0.0473674 0.0118002 0.0023811 
905 -0.0112549 -0.0471801 0.0146557 0.00377976 
642 -0.00357836 -0.0462046 0.0108405 0.0023811 
921 0.00271855 -0.0495675 0.0120595 0.003 
702 0.0093345 -0.0497124 0.010642 0.00377976 
558 0.0142159 -0.0472845 0.0146055 0.003 
631 0.0241671 -0.0480841 0.0125493 0.0023811 
207 0.0329921 -0.0491233 0.013162 0.003 
536 0.0455183 -0.04881 0.014227 0.0023811 
362 0.0490223 -0.0457985 0.011528 0.003 
72 -0.0409757 -0.0445649 0.0139954 0.003 
53 -0.0275479 -0.0442332 0.0131289 0.00377976 
641 -0.0216218 -0.0429155 0.013987 0.0023811 
1033 -0.0159339 -0.0421973 0.0132641 0.0023811 
848 -0.0119315 -0.0422725 0.0106924 0.0023811 
934 -0.00741835 -0.0434962 0.0115423 0.0023811 
1006 -0.00258696 -0.0411537 0.0122451 0.003 
1049 0.00165298 -0.0443582 0.0115698 0.0023811 
745 0.00920899 -0.0436223 0.00996556 0.0023811 
1111 0.00625603 -0.0449031 0.0142441 0.003 
1015 0.0130991 -0.0416276 0.0130324 0.003 
154 0.0190098 -0.0441879 0.0110086 0.00377976 
279 0.0248156 -0.0422401 0.0111668 0.0023811 
200 0.02825 -0.041968 0.0144332 0.0023811 
142 0.0321993 -0.0416487 0.0118145 0.0023811 
442 0.0371833 -0.0411852 0.0125386 0.0023811 
311 0.0422741 -0.0423244 0.0137885 0.003 
28 0.0496558 -0.040121 0.0132995 0.003 
111 -0.04576 -0.0359423 0.010645 0.003 
516 -0.0426801 -0.0389088 0.0147834 0.003 
950 -0.0200693 -0.0386046 0.0118905 0.0023811 
915 -0.0153056 -0.0367979 0.0135728 0.003 
1040 -0.00657914 -0.0377418 0.0113107 0.0023811 
1109 -0.00176054 -0.0353903 0.010936 0.003 
1003 0.0036653 -0.0387758 0.0131459 0.00377976 
906 0.010354 -0.0356084 0.0116856 0.00377976 
436 0.0165425 -0.0367396 0.0112443 0.0023811 
1022 0.0204746 -0.0384855 0.014461 0.003 
609 0.028349 -0.0384147 0.00995921 0.003 
325 0.0402904 -0.0368088 0.0125831 0.003 
230 0.0451399 -0.0369895 0.0102974 0.0023811 
307 -0.0472068 -0.0305688 0.0135495 0.003 
210 -0.0412475 -0.0332041 0.0133637 0.003 
626 -0.035427 -0.0344008 0.0128526 0.003 
816 -0.0293435 -0.0333718 0.011099 0.003 
212 -0.0234364 -0.0345404 0.0111058 0.003 
1236 -0.0106027 -0.0342336 0.0138933 0.0023811 
1232 -0.00587796 -0.0340514 0.0141772 0.0023811 
1124 -0.00521838 -0.0305747 0.0101784 0.003 
1323 -0.000577661 -0.030365 0.0139103 0.003 
1140 0.0185118 -0.0326586 0.0126239 0.0023811 
804 0.0250032 -0.0325995 0.0103853 0.00377976 
824 0.0313659 -0.0331982 0.0126038 0.003 
91 0.0370477 -0.0322001 0.0111607 0.0023811 
736 0.0417553 -0.0317525 0.0115848 0.0023811 
240 0.0491367 -0.0349893 0.011889 0.0023811 
346 0.0450227 -0.034116 0.0140556 0.0023811 
489 0.0475924 -0.0305467 0.0122535 0.0023811 
114 -0.0421894 -0.0273836 0.0141757 0.003 
514 -0.029393 -0.026144 0.0143975 0.003 
932 -0.0217906 -0.0258812 0.0117275 0.0023811 
920 -0.0153927 -0.0285027 0.010328 0.003 
1226 -0.00965161 -0.0269098 0.0117389 0.003 
1018 -0.00213846 -0.0255119 0.0106959 0.003 
248 0.00309742 -0.0271013 0.0117845 0.0023811 
1108 0.00760361 -0.0296757 0.0139823 0.003 
901 0.01446 -0.0253659 0.0109295 0.00377976 
1122 0.0236657 -0.0272259 0.0141948 0.003 
1143 0.0290032 -0.0274373 0.0143353 0.0023811 
733 0.0335875 -0.0284287 0.0137694 0.0023811 
540 0.0364681 -0.0276099 0.0101247 0.0023811 
84 0.0412428 -0.0270577 0.0112046 0.0023811 
5 -0.0471047 -0.0231053 0.0124685 0.00377976 
838 -0.0413114 -0.0211019 0.0122593 0.0023811 
604 -0.0361621 -0.0243206 0.0131241 0.00377976 
904 -0.0251894 -0.0210075 0.0132611 0.00377976 
1324 -0.0174019 -0.024751 0.0145752 0.003 
826 -0.0137545 -0.0227603 0.0102677 0.003 
910 -0.00664464 -0.0215764 0.0115239 0.003 
903 0.00255122 -0.021055 0.012551 0.00377976 
810 0.00774321 -0.0247833 0.0104602 0.003 
579 0.0106221 -0.020869 0.0126706 0.0023811 
1229 0.0197204 -0.0222174 0.0115133 0.0023811 
1002 0.025748 -0.020852 0.0134532 0.00377976 
716 0.0321297 -0.0232579 0.0130285 0.003 
843 0.038005 -0.0239548 0.0127002 0.0023811 
792 0.040885 -0.0202165 0.0123133 0.0023811 
277 0.0464486 -0.0244899 0.0110333 0.003 
180 -0.0454858 -0.017174 0.0119635 0.0023811 
809 -0.0332587 -0.0182387 0.0129143 0.003 
1021 -0.0185557 -0.0191559 0.0127015 0.003 
1220 -0.00809499 -0.0161843 0.0137203 0.003 
1234 -0.0027221 -0.0179682 0.0120613 0.0023811 
1028 0.0151831 -0.0195872 0.0127819 0.0023811 
1137 0.0178974 -0.0161059 0.0110527 0.0023811 
888 0.0226267 -0.0160212 0.0113205 0.0023811 
1004 0.032152 -0.0152543 0.0114898 0.00377976 
648 0.0455396 -0.0195758 0.0129861 0.0023811 
715 -0.0445326 -0.0119306 0.0123563 0.003 
830 -0.0391928 -0.0118333 0.0120134 0.0023811 
1131 -0.0346145 -0.0130177 0.0116745 0.0023811 
1200 -0.0284876 -0.0135525 0.0137782 0.00377976 
1102 -0.0207635 -0.0125413 0.0132516 0.00377976 
1119 -0.0150267 -0.0148197 0.0105563 0.003 
1311 -0.00596275 -0.0107933 0.0122406 0.003 
1017 0.00116787 -0.0145628 0.0135096 0.003 
1025 0.0120991 -0.0122939 0.0108878 0.003 
1126 0.0178081 -0.0107587 0.0115303 0.003 
1179 0.0267266 -0.0121554 0.0116429 0.0023811 
433 0.0378693 -0.0144256 0.0137539 0.0023811 
813 0.0425028 -0.0127141 0.0116994 0.003 
324 0.0483914 -0.0139794 0.0104372 0.003 
160 -0.041264 -0.00699652 0.01324 0.003 
908 -0.0355291 -0.00773104 0.0117017 0.003 
1024 -0.0286581 -0.00706073 0.012011 0.003 
1185 -0.0222934 -0.00720242 0.0107169 0.0023811 
1223 -0.0152978 -0.00885652 0.0118853 0.003 
1238 -0.0104905 -0.00870268 0.0141771 0.0023811 
1110 -0.0022399 -0.0061952 0.0113791 0.003 
1043 0.00185563 -0.00934098 0.0127712 0.0023811 
727 0.00732972 -0.00648367 0.0119754 0.003 
1125 0.0236368 -0.00789086 0.0126283 0.003 
242 0.0296408 -0.00868458 0.0102624 0.0023811 
1147 0.0333487 -0.00671808 0.0124295 0.0023811 
911 0.0375001 -0.00941762 0.0104226 0.003 
1317 0.041231 -0.007734 0.0147465 0.003 
351 0.0470416 -0.00740572 0.0113688 0.00377976 
155 -0.0495465 -9.58999e-05 0.0145944 0.00377976 
1130 -0.043724 -0.00233498 0.0122538 0.0023811 
1047 -0.0377306 -0.00297783 0.012854 0.0023811 
669 -0.0325542 -0.00257147 0.0114628 0.003 
941 -0.0248649 -0.00329265 0.0114635 0.0023811 
1301 -0.0185645 -0.00316035 0.0133846 0.00377976 
1189 -0.0130681 -0.00129462 0.0112694 0.0023811 
1384 -0.0112493 -0.00378072 0.014874 0.0023811 
141 -0.00297154 -0.000948094 0.0101704 0.0023811 
1344 -0.00243563 -0.00204795 0.0147579 0.0023811 
1062 0.00211678 -0.00145718 0.0117282 0.003 
1001 0.0137927 -0.00468009 0.011246 0.00377976 
1243 0.0197716 -0.00417426 0.0124998 0.0023811 
1009 0.0246036 -0.0020067 0.013175 0.003 
907 0.0297192 -0.00333214 0.0104201 0.003 
1064 0.0346589 -0.000540284 0.012257 0.003 
880 0.0384251 -0.00428658 0.011764 0.0023811 
32 -0.0477923 -0.0483526 0.0180765 0.0023811 
96 -0.0438094 -0.045827 0.0184034 0.0023811 
380 -0.0379088 -0.0487634 0.0153096 0.0023811 
620 -0.0386538 -0.0459238 0.0197668 0.003 
628 -0.0328632 -0.0456638 0.0183426 0.003 
944 -0.0234435 -0.0472224 0.0166119 0.0023811 
22 -0.0182568 -0.0469145 0.0151787 0.003 
1048 -0.00682624 -0.0495751 0.0181515 0.0023811 
1206 0.000810964 -0.0461349 0.0165287 0.003 
1129 0.00590369 -0.0497749 0.0163826 0.0023811 
1535 0.0101473 -0.04586 0.0178149 0.0023811 
928 0.0208651 -0.0468601 0.0191228 0.003 
178 0.0281455 -0.0471022 0.0159966 0.003 
603 0.039578 -0.0482456 0.0155803 0.00377976 
15 0.0471093 -0.0498308 0.019259 0.003 
265 -0.0465369 -0.0412254 0.0187349 0.003 
198 -0.0412432 -0.0411754 0.019474 0.0023811 
704 -0.0362182 -0.0402673 0.0160993 0.00377976 
99 -0.0277011 -0.044545 0.0192364 0.0023811 
744 -0.024452 -0.0413283 0.0175353 0.0023811 
940 -0.0206043 -0.0437432 0.018768 0.0023811 
1120 -0.0152075 -0.0430802 0.0185801 0.003 
1113 -0.00507611 -0.0449054 0.0161659 0.003 
289 -0.00115986 -0.0412251 0.0173988 0.0023811 
1315 0.00368612 -0.0418814 0.0195588 0.003 
1210 0.00895314 -0.0404569 0.0171534 0.003 
1118 0.0171507 -0.0425708 0.0172941 0.003 
798 0.0234704 -0.0442543 0.015232 0.0023811 
515 0.0297222 -0.0426963 0.0197079 0.003 
218 0.0343337 -0.0440095 0.0160963 0.003 
392 0.0434513 -0.0444773 0.0185531 0.0023811 
270 0.0486503 -0.0444269 0.0172991 0.003 
313 -0.0475384 -0.0358281 0.0163626 0.003 
450 -0.0434371 -0.0369663 0.019714 0.0023811 
1030 -0.0393707 -0.0353173 0.017908 0.0023811 
801 -0.0291796 -0.037634 0.0163208 0.00377976 
1224 -0.0225108 -0.0363855 0.0182057 0.003 
643 -0.0188056 -0.0398652 0.0162498 0.0023811 
1331 -0.0136104 -0.0358351 0.0185731 0.0023811 
1203 -0.00984606 -0.0399368 0.0159605 0.00377976 
1134 -0.00420081 -0.0376417 0.0167847 0.0023811 
1506 0.000978138 -0.0365229 0.0188666 0.003 
1026 0.0149937 -0.037034 0.0163728 0.003 
1448 0.0192206 -0.0361409 0.0195675 0.0023811 
616 0.0262162 -0.0370776 0.0153388 0.003 
611 0.0319959 -0.0385013 0.0161116 0.003 
376 0.0384134 -0.0398846 0.0175901 0.003 
68 0.0456342 -0.0391756 0.0175958 0.003 
1247 -0.0431374 -0.0324612 0.0183191 0.0023811 
929 -0.0316164 -0.0313318 0.016262 0.003 
723 -0.0257139 -0.0318709 0.0159034 0.003 
1305 -0.0190234 -0.0314338 0.0152016 0.00377976 
1531 -0.00845964 -0.0343799 0.0181516 0.0023811 
1518 -0.00344552 -0.0325392 0.0186844 0.003 
1045 0.00378019 -0.0330972 0.0155522 0.0023811 
1303 0.00917822 -0.0339772 0.0189595 0.00377976 
1115 0.0134284 -0.0306156 0.0149816 0.003 
1432 0.0161265 -0.0325806 0.0191559 0.0023811 
1325 0.0221703 -0.032833 0.0165033 0.003 
1213 0.0280147 -0.0317753 0.0173366 0.003 
187 0.0331193 -0.0303187 0.0180732 0.0023811 
721 0.036153 -0.0342404 0.0160458 0.003 
617 0.0417015 -0.0347407 0.0181831 0.003 
633 0.0485316 -0.0322142 0.0166032 0.0023811 
286 -0.0471263 -0.0299884 0.0188842 0.0023811 
1133 -0.0422644 -0.0279604 0.0194876 0.0023811 
117 -0.0374042 -0.0299768 0.0166077 0.003 
1309 -0.023368 -0.026474 0.0168069 0.003 
1502 -0.0121034 -0.0294931 0.0174752 0.00377976 
1436 -0.00536519 -0.0279361 0.0148589 0.0023811 
1204 0.00311967 -0.0263596 0.0178526 0.00377976 
1217 0.0184777 -0.0281607 0.0169618 0.003 
1019 0.0386386 -0.0288417 0.0155399 0.003 
396 0.0439389 -0.029355 0.0150122 0.0023811 
526 0.0485728 -0.026903 0.0160493 0.003 
78 -0.0406042 -0.0231175 0.0180338 0.003 
738 -0.0328942 -0.0249769 0.018312 0.0023811 
1245 -0.0305758 -0.021318 0.0163587 0.0023811 
1444 -0.0270715 -0.0232167 0.018926 0.0023811 
1345 -0.0138939 -0.0237185 0.0185136 0.0023811 
1215 -0.00886968 -0.0236277 0.0166425 0.003 
1008 -0.00291601 -0.0233516 0.0161991 0.003 
1332 0.00207405 -0.0203272 0.0186085 0.0023811 
1128 0.00651567 -0.0212977 0.0172252 0.0023811 
1114 0.0103367 -0.024895 0.0162152 0.003 
1348 0.0169237 -0.0231141 0.0160273 0.0023811 
1413 0.0217746 -0.0233543 0.0183012 0.003 
1330 0.0271002 -0.024912 0.01785 0.0023811 
1407 0.032446 -0.0239916 0.0189516 0.003 
1337 0.0375557 -0.0239395 0.0173988 0.0023811 
322 0.0425499 -0.0242098 0.0155448 0.003 
1027 0.0468121 -0.0211656 0.0183677 0.003 
525 -0.0499176 -0.0175104 0.0149421 0.003 
712 -0.0443738 -0.018573 0.0170125 0.003 
959 -0.0385446 -0.0180564 0.0156888 0.003 
1624 -0.0344903 -0.0198784 0.0197102 0.003 
1316 -0.0273431 -0.0178548 0.0188595 0.003 
1327 -0.0214825 -0.0175566 0.017687 0.003 
1209 -0.0129356 -0.0194561 0.0151844 0.003 
1310 -0.00230115 -0.0175135 0.0173677 0.003 
1322 0.00287137 -0.015045 0.0192315 0.003 
1202 0.00822711 -0.0157877 0.0151667 0.00377976 
1441 0.0124226 -0.0200058 0.0169581 0.0023811 
1628 0.0122147 -0.0162272 0.0198192 0.0023811 
1222 0.0197046 -0.0185511 0.0154408 0.003 
1411 0.0234614 -0.0168385 0.0197376 0.003 
1132 0.0266118 -0.0150861 0.0153547 0.0023811 
1423 0.0308345 -0.0185089 0.0172295 0.003 
1214 0.0362644 -0.0193925 0.0149041 0.003 
1020 0.0415678 -0.0173283 0.0167321 0.003 
67 -0.0496056 -0.0115617 0.0154801 0.003 
1087 -0.0465545 -0.0130586 0.019591 0.0023811 
1218 -0.0416514 -0.0132773 0.0174311 0.003 
1312 -0.0344117 -0.0139513 0.0169401 0.003 
1505 -0.0243393 -0.011842 0.0198104 0.00377976 
1201 -0.0142761 -0.013092 0.0170337 0.00377976 
1300 -0.00216652 -0.0107234 0.0179364 0.00377976 
1307 0.014936 -0.0149373 0.0153887 0.003 
1306 0.0217725 -0.0127941 0.0155061 0.003 
1647 0.0284384 -0.0143836 0.0196563 0.0023811 
228 0.034995 -0.0108548 0.0149063 0.0023811 
1302 0.0360616 -0.0146004 0.0196532 0.00377976 
243 0.0422099 -0.0121002 0.0176522 0.0023811 
1046 0.0458249 -0.0143357 0.0155327 0.0023811 
326 -0.0468793 -0.00627314 0.0152224 0.003 
1039 -0.0377579 -0.00988674 0.0160422 0.0023811 
1011 -0.0386437 -0.00510529 0.0182624 0.003 
1405 -0.0323396 -0.00749929 0.0176462 0.00377976 
1212 -0.0240117 -0.00644397 0.015738 0.003 
1343 -0.019068 -0.00805176 0.0170556 0.0023811 
1416 -0.0141317 -0.00649342 0.0184572 0.003 
1135 -0.00965533 -0.0094474 0.0187586 0.0023811 
1271 -0.00626156 -0.00581387 0.0158007 0.003 
1163 0.00153092 -0.00532229 0.0162213 0.003 
1426 0.00554062 -0.00977066 0.0166445 0.003 
1221 0.0128761 -0.00935577 0.0160567 0.003 
1422 0.0185823 -0.0075378 0.0164779 0.003 
1509 0.0239636 -0.00541949 0.0180595 0.003 
1101 0.0292915 -0.00920794 0.0163436 0.00377976 
1249 0.0349951 -0.00516337 0.0165621 0.0023811 
1398 0.037454 -0.00876489 0.0183674 0.0023811 
996 0.0458658 -0.00911701 0.0171563 0.0023811 
1042 0.0483844 -0.00509904 0.0174771 0.0023811 
1032 -0.0432328 -0.00275469 0.0169118 0.0023811 
1208 -0.0347602 -0.000818441 0.0167601 0.003 
1012 -0.0283844 -0.00236968 0.015684 0.003 
1148 0.00606359 -0.0023387 0.01524 0.0023811 
1538 0.0100947 -0.00465262 0.0161379 0.0023811 
1433 0.0145957 -0.00381561 0.0172801 0.0023811 
1136 0.0118204 -0.000352118 0.0151855 0.0023811 
1103 0.0300725 -0.00159479 0.0170952 0.00377976 
930 0.0390119 -0.00272073 0.0162968 0.0023811 
924 0.0442299 -0.00260228 0.0152084 0.003 
490 0.0467706 -0.000645045 0.0194853 0.0023811 
725 -0.0493181 -0.0467805 0.0229548 0.003 
1029 -0.0445462 -0.0490892 0.021786 0.0023811 
732 -0.0405157 -0.0486243 0.0247286 0.0023811 
706 -0.035311 -0.0498229 0.024372 0.003 
122 -0.0310971 -0.0456077 0.0241417 0.003 
1041 -0.0226436 -0.0471978 0.0213649 0.0023811 
482 -0.0164161 -0.0480926 0.0200435 0.0023811 
913 -0.0113434 -0.04942 0.0210338 0.003 
1127 -0.0141941 -0.0454604 0.0232836 0.0023811 
1530 -0.00958767 -0.0456924 0.0244543 0.0023811 
1403 -0.00278477 -0.0472442 0.0220958 0.00377976 
1313 0.0038025 -0.0492242 0.0212626 0.003 
841 0.00935304 -0.0494733 0.0224394 0.0023811 
625 0.0150472 -0.0471697 0.0204963 0.003 
1382 0.0200724 -0.0462368 0.0243624 0.0023811 
595 0.0242293 -0.0494815 0.0239457 0.0023811 
379 0.0259181 -0.0462915 0.0208559 0.0023811 
587 0.0288045 -0.0497855 0.0223328 0.0023811 
409 0.0334799 -0.0477122 0.0206866 0.003 
999 0.0305863 -0.0462674 0.0249473 0.0023811 
821 0.0390934 -0.0452268 0.021566 0.003 
177 0.0443581 -0.046973 0.0237474 0.003 
348 -0.047914 -0.0417304 0.0240347 0.0023811 
7 -0.0431725 -0.0441524 0.023483 0.003 
1106 -0.0374113 -0.0429264 0.024751 0.003 
1207 -0.0323548 -0.0403592 0.0216295 0.003 
1333 -0.0258835 -0.0445329 0.0235882 0.0023811 
1329 -0.0270002 -0.0403609 0.0214172 0.0023811 
1240 -0.0184376 -0.0433674 0.0229315 0.0023811 
936 -0.00920487 -0.0446546 0.0198461 0.0023811 
1606 -0.00531374 -0.041117 0.0207718 0.003 
1616 0.00827668 -0.0442322 0.022573 0.003 
1429 0.012789 -0.0423119 0.0203972 0.0023811 
1832 0.0114798 -0.0403954 0.0245254 0.0023811 
1617 0.0173407 -0.0417789 0.0232 0.003 
1100 0.0232943 -0.0406876 0.0202106 0.00377976 
743 0.0348446 -0.0420496 0.0210575 0.0023811 